     353
 i =    15010, time =    15010.000, E =     -3667.6385761139
  O         5.6384959453        9.7564683282       13.2976478071
  O        -0.6872369848        7.3597997218       12.9796382376
  O        10.6056524353       12.5900291350       13.1766323925
  O         5.6828143012        5.6244265343       17.4216344106
  O        11.5776675739        0.4064058920       22.4829723734
  O         7.9543897903        7.4399127439       17.9141191313
  O        -0.8601067733        3.7969964186       21.4762161234
  O         8.9387933329        7.9841418363       24.6855172812
  O        -0.8663917852        2.5377834142       12.4017976938
  O         2.8447610170       -2.8049648052       27.6476083928
  O        11.4790495351        5.4215168936       19.8805773958
  O         3.1038928582        2.6059089275       22.6177448304
  O         6.6680983310        2.5780108111       19.0596734865
  O         5.7280487057        4.9492313534        9.2205700484
  O         0.1063633069       -4.1874461089       27.1850558232
  O         9.0959801333        6.4075280366       20.1876539042
  O         7.8898619532       -1.6884300149       22.0056299206
  O         4.1524973277        3.8600519992       26.4349493467
  O        -0.9037587603        7.0198065715       18.1493441195
  O         6.0215899643        5.3412146181       25.4696363446
  O         0.3368630256        9.7525239500       18.9838718739
  O        12.1681105497        3.8906955498       25.8015626213
  O        10.8830421310        6.2274917768       12.8763129682
  O         3.8358636770       -2.5005614789       24.9891555975
  O         4.4717602841        1.1434885413       18.7445672718
  O         2.8683094039       -0.1506519585       28.8889331973
  O        12.8835101607        2.1878445937       23.6947105373
  O        13.4512933434        9.5677905404       28.0045501333
  O         1.0911943672        2.1359683239       20.6700728537
  O         8.2571045645        0.3429830605       19.0565111191
  O         8.9710257923        8.0591621706       12.8467990132
  O         8.2503617115        4.1467401357       13.0819197686
  O        -1.3293643550        7.0920649078        9.3273776577
  O         3.3512976371        9.5275563624        9.4315702917
  O         5.5369139530        5.1518805294       14.2147093865
  O        -2.6178851958        6.1043539329       23.7271782822
  O         6.8002376163       -1.2237233044       11.3902781687
  O        10.5507078059        3.6097447238       17.8650721004
  O         4.7906830902        3.2064601053       16.1736298111
  O         8.0224100634        1.1471879913       16.1908738704
  O         3.8131737734        3.2088165808       10.1838894190
  O        -2.9777276900       10.5600364104       18.3925423286
  O         7.4219340915       10.0643819242       23.8384594764
  O        10.6530495690       10.7492814759       26.9704031360
  O         7.9318047488        6.1734695770       14.7420640561
  O        -0.3671619647       10.0113095422       14.3141733233
  O         2.4638622451        7.0534426393       11.8403335467
  O         2.9734846450        1.1156601014       13.1108270961
  O         2.0408990379        5.1173749955       23.8491332154
  O         1.9979394337        0.9701052338       15.5958799336
  O         9.8947661331        7.2164792386        9.5042457135
  O         3.9878162039        7.0422150149       15.7385016431
  O         2.1042070867        2.4256811569       25.2094419011
  O         8.0180315730        6.5401386439       26.6529236867
  O         7.9714465121        3.7415399662       17.0417272076
  O         0.0800276306        6.1139917754       22.4998819221
  O         3.3745224317        3.9200745055       12.8260080529
  O         4.3353216597       -0.3187663275       23.0704065781
  O        12.7710614622        9.5858213965       10.6787342315
  O         9.4651032183        4.2613317603       22.0526160911
  O        10.8857914714        4.5683237592       15.3705446889
  O         1.1043086359        0.2299157914       23.9100473302
  O        -2.5476726344        9.5653223885       15.8959793939
  O         5.4164800927        3.6153127947       21.1695438923
  O         1.3652535709        9.5632488448       11.4080530628
  O        14.8002104076        2.9144099513       10.2491851551
  O         8.2201467116        5.4236728758       10.5900496638
  O        14.4795339969        4.9936271367       13.1234206854
  O         5.5334458246       -0.0190867357       16.3135573597
  O         8.9759453545        1.2757079680       21.6263287897
  O        10.9649998186        4.1909862160       10.3110201411
  O         7.9023324518        1.9685222641       25.8841633864
  O         2.7288024909       -0.5115939826       17.6009713046
  O         0.7850329171        5.7115206791        9.9539496487
  O        10.1185464161        7.2387299820       16.2534262006
  O         1.8746581412        7.5686104829       14.4991800981
  O         0.1546889072        5.8434146455       15.8155463184
  O        11.3891435724        9.1006742627       25.1638376725
  O         6.5602863287        2.5392115743       11.7957875125
  O         2.8964453813        3.4707137851       18.8375151593
  O         0.2360589817        8.7683414140       21.5304799905
  O         8.0440391145       10.4349780173        9.9983644647
  O         4.6418855322        7.1985433338       10.3707615074
  O         9.7075796273       10.3603497911       13.9328166323
  O        10.5896133660       11.0328990791       10.2143428785
  O        14.9952048569        2.0176897846       27.5483986729
  O         2.1217105101        3.8516026503       16.4487673970
  O         4.7250419817       -1.3491678573       20.5377067564
  O         0.4705664338       -1.3336375830       25.8748407704
  O         4.3456044251        5.6231799116       19.6086640345
  O         6.8291714884        5.0833101014       22.9719364850
  H         4.6531755700        9.7676579310       13.0490395592
  H        -0.5856415058        7.9649685969       12.2073697287
  H        11.6054607025       12.7094586386       12.8428065188
  H         6.5237348621        6.2545015525       17.5299154145
  H        12.1311266369        9.3079151762       22.0114120339
  H         8.4427957915        6.9460758815       18.6473931538
  H        -0.3538307185        4.6605116837       21.7257651470
  H         8.3989272140        8.8204155186       24.3783550070
  H        -0.8181957537       11.2224081700       12.9264395622
  H         2.7145818901       -2.0113911575       28.2460667239
  H        12.1065816946        6.0890690942       19.3669039809
  H         2.3110568242        2.4569702716       22.1118285585
  H         7.0668402546        3.3038404899       18.5663739404
  H         5.2110798218        4.1780218437        9.5655285843
  H        -0.3824809132       -4.0485611736       28.0241966703
  H         8.8188486169        6.8914458929       20.9455398316
  H         7.0672156053       -1.4850291707       21.5235148999
  H         3.8354314776        4.0306490855       27.3180758974
  H        -0.2632974794        6.4229956013       17.6762427833
  H         6.7107533052        5.8747190243       26.0137274247
  H        -0.4665599893        9.2650545510       18.5270988136
  H        11.8510822933        4.6241758070       25.1431249376
  H        10.2378569456        6.9808798498       12.8350368004
  H         3.3475142443       -2.5105801181       25.8216539022
  H         5.3465553302        1.6304755362       18.6414364538
  H         3.3351616963        0.6907641817       28.5601420430
  H        -0.0532057892        1.7111229089       23.7512019930
  H        13.9778147854       10.3907312286       27.9305669097
  H         0.6861278720       11.1295913620       20.0438957261
  H         7.4976675644        0.9152243276       19.0877353803
  H         8.2207133380        7.9638451770       12.0878263396
  H         7.4954415736        3.4780599215       12.6160568334
  H        -0.6046158935        6.4228540100        9.5623904019
  H         2.4803129553        9.6098454672        9.9497527680
  H         4.8917780949        5.8653831158       14.2785603171
  H        -3.4116179192        6.7575710237       23.8813992965
  H         6.5799428778       -0.6331131977       12.1711334243
  H        10.8622989661        4.2909649636       18.4797588170
  H         5.3630515713        3.6105133068       15.5355906738
  H         7.9621583255        2.1228923588       16.5671906488
  H         3.9124006689        3.4918272453       11.1055280101
  H        -3.0718130690       11.5087595757       18.2753670433
  H         7.5117935990       10.6670746193       24.6524549820
  H        10.9650608518       10.2520769127       26.2005155543
  H         8.4097496051        6.7852455883       14.1052436405
  H         0.5701949678       10.1666565739       14.5789765731
  H         1.7309491610        6.5803666450       11.3456895185
  H         3.1736131776        2.0574379322       13.1320999607
  H         1.7265706819        4.4883184302       24.6027424541
  H         2.2271272928        0.3611093371       16.2405217320
  H         9.8163636531        8.0607087463       10.0205529106
  H         3.2153713502        7.2825919318       15.1157622853
  H        15.9653912624        1.5147837299       24.7677983376
  H         7.5247319022        7.2026505967       27.2710595041
  H         7.7343876850        4.6126412583       16.7798953889
  H        -0.7401406072        6.2444894513       22.9709318557
  H         4.1739615988        4.5362428668       13.1152234819
  H         3.6586380208        0.3482568753       23.2657902993
  H        11.9694009803       10.1387888562       10.6492376873
  H         9.2213577812        4.7570454651       21.1584503103
  H        11.7686545025        4.7648961591       15.2573964827
  H         0.5659263206       -0.5586759804       24.5054007030
  H        -2.4394602747       10.0526467891       16.7437102013
  H         4.7364433980        3.1124628942       21.6120398025
  H        15.6650561961       10.1162161529       12.1382085991
  H        14.3483045950       12.0028173456        9.5187629849
  H         8.1473188743        5.1903050080       11.5743918852
  H        14.1076774564        5.5841767818       12.4141916973
  H         6.5193743534        0.1048733038       16.2543671676
  H         8.7725396547        0.8631229721       20.7352942611
  H        11.5704534465        3.9164504852        9.6108360062
  H         8.8241883659        1.7724092239       26.3379869414
  H         2.9158909959        8.2331638592       17.2840816013
  H         0.8588832293        4.6320297960        9.9112080775
  H        10.6234842107        7.9794765799       15.8597709209
  H         1.1677185970        7.1611559418       15.0038392249
  H        -0.0177896165        5.6979040610       14.8482979600
  H        11.5085713984        9.4805481214       24.2220984280
  H         6.3438851748        1.7159605478       12.3353321080
  H         2.2410577204        3.1924226583       19.5229795566
  H         0.4657287903        9.0789054708       20.6072719960
  H         7.8455222113       10.4958108485        8.9853849840
  H         3.8642015256        6.8560730662       10.9400133671
  H        10.3566991740       10.0485148764       14.6681982491
  H        10.4206531753       11.9551455141       10.5205765576
  H        14.8280030182        2.9176905100       27.8154200427
  H         2.1263209485        3.7418616016       17.4406579635
  H         4.4245025138       -0.8568933642       21.3524766592
  H        14.5129173664        7.3427603408       26.0766574507
  H         4.4511390118        6.5274973482       20.0331006725
  H         6.5455750558        4.4494384488       22.1395268895
  H         5.5403085547        9.8100711659       14.3081467209
  H        -1.5437574759        6.7859441895       12.8058628301
  H        10.4829927459       11.5972391070       13.2261082762
  H         4.9099594046        6.0055720691       16.8617880607
  H        10.8381150881        0.6236386237       21.9219868681
  H         8.5687328264        7.3512398108       17.1163630691
  H        -1.0600279518        3.2875829440       22.2942835009
  H         9.6433150021        8.2470901964       25.2354126977
  H        -0.1966409519        2.5588739596       11.7103341317
  H         2.0329911042       -3.3839692561       27.9362591690
  H        11.9497080587        4.8683973284       20.5364694582
  H         2.9722025979        3.5527009138       22.9167541126
  H         6.1590657155        2.8292581922       19.8911374521
  H         5.3183527650        5.8093030618        9.6507650664
  H        -0.3984644810       -4.9302594766       26.6277779062
  H        10.0239433207        6.2592305467       20.0900247756
  H         7.7240352641       -2.4334672159       22.6288152132
  H         4.8543786346        4.4057597274       26.1086841388
  H        -1.5712808866        7.1482510980       17.4614505840
  H         6.1509833714        5.1399099299       24.4879278583
  H         1.1796560571        9.5545331419       18.4568420079
  H        12.4218322979        3.1130367889       25.2228984977
  H        10.4596675036        5.4998993261       12.3979209684
  H         4.6856431071       -3.0471253226       25.2257301951
  H         3.8610539590        1.9602478295       18.8685116731
  H         1.9380138169        0.2553510035       28.8082458078
  H        12.3144658698        1.4923812467       23.3130865865
  H        12.5406835684        9.6941071769       27.7149257255
  H        14.1764338773        2.7254727637       20.9858064077
  H         8.0485906925       -0.6653025288       18.8696287146
  H        -4.7717250978        8.9027388761       13.3533420030
  H         9.1225621558        3.6233802608       13.0129179474
  H        -2.3224401208        6.8463903852        9.6123558295
  H         3.8749340342        8.7247702700        9.6800723703
  H         6.4012271046        5.6208264296       14.5156290254
  H        -3.0002329362        5.4791737948       22.9819438788
  H         7.3206354914        9.0104677790       10.7666423588
  H        10.9126878983        3.6472118005       16.9716991053
  H         5.0451717736        3.5412095227       17.0099092729
  H         8.5429198246        0.6183041940       16.8418313595
  H         4.1679116621        2.2946712721       10.0657757046
  H        -3.9014434461        0.5683181617       18.5053731407
  H         6.5426305152        9.6296784762       23.9277467283
  H        11.1087819530       11.6377267356       26.8885545247
  H         8.0174765193        5.3341939255       14.1533783258
  H        -0.4119801257        9.0244596893       14.0457875788
  H         2.1769852149        7.9581007149       11.6222579621
  H         2.6255031197        1.0240918176       14.0200826620
  H         2.7005964429        5.7189009434       24.2659706136
  H         1.9735918690        1.9143990903       15.9591764592
  H         9.1426655444        6.6634162565        9.8015691154
  H         4.5404217169        7.8232897127       15.8343831292
  H         3.0290869899        2.7348740313       25.2535632474
  H         8.1441660443       -2.4802753621       25.9069281966
  H         8.8529303646        3.7833164836       17.4784791105
  H         0.7646662854        5.8214126006       23.1163114888
  H         2.5557778698        4.3420220750       13.0154664704
  H         4.1806654652       -1.0193310908       23.8247682384
  H        12.8381882870        9.1244131463        9.7618742458
  H         9.3787894577        3.2757643336       21.8149669769
  H        10.7398196441        3.9089475913       14.6346397390
  H         1.1323801075       -0.0133875189       22.9184734087
  H        -1.6821330251        9.7528987731       15.4903976789
  H         4.9444618830        4.2237164106       20.6471310125
  H         0.3630543925        9.8082874146       11.3855281534
  H        15.7573032415        2.6657218731       10.2124775046
  H         7.3999635587        5.1549892362       10.1183418601
  H         0.1848324407        4.0872327293       12.9945061074
  H         5.1973861443        0.9016961122       16.6528491289
  H         8.2283976475        0.9669090038       22.2041291867
  H        10.1330759049        4.4939390989        9.8513918063
  H         7.3683668645        2.4498590224       26.4655661932
  H         3.5682825402       -0.1736474794       18.0620993890
  H        15.3616638483        6.0720713368        9.4088063558
  H        10.2216601627        6.3431411075       15.8115518225
  H         1.7763146384        7.3843717308       13.5051465871
  H         0.8515658471        5.0735920172       15.8624544319
  H        12.2074442526        8.6142770892       25.3150938094
  H         7.1810571860        2.1276402663       10.9733171870
  H         3.1000710338        4.3856890305       19.2425950812
  H         0.5182990129        7.7967321880       21.6582131236
  H         9.0076806987       10.5844984599       10.1161935587
  H         5.3375804058        7.6698058619       10.8443574118
  H         8.9016902012       10.5841278782       14.6022179181
  H        10.8251407739       11.1096472600        9.2340997106
  H         1.5924773196        2.1998633290       26.5970922191
  H         3.0508271886        4.0040719785       16.1129753605
  H         4.8160097440       -0.6602707193       19.8849732473
  H         0.0867216282       -0.9853660629       26.7316688584
  H         4.8315864024        5.7031867199       18.7942283057
  H         7.8234449344        4.7404353360       23.0752693539
 Pt         0.0000000000        0.0000000000        0.0000000000
 Pt         2.7718600000        0.0000000000        0.0000000000
 Pt         5.5437200000        0.0000000000        0.0000000000
 Pt         8.3155800000        0.0000000000        0.0000000000
 Pt        11.0874400000        0.0000000000        0.0000000000
 Pt         1.3859300000        2.4005000000        0.0000000000
 Pt         4.1577900000        2.4005000000        0.0000000000
 Pt         6.9296500000        2.4005000000        0.0000000000
 Pt         9.7015100000        2.4005000000        0.0000000000
 Pt        12.4733690000        2.4005000000        0.0000000000
 Pt         0.0000000000        4.8010000000        0.0000000000
 Pt         2.7718600000        4.8010000000        0.0000000000
 Pt         5.5437200000        4.8010000000        0.0000000000
 Pt         8.3155800000        4.8010000000        0.0000000000
 Pt        11.0874400000        4.8010000000        0.0000000000
 Pt         1.3859300000        7.2015000000        0.0000000000
 Pt         4.1577900000        7.2015000000        0.0000000000
 Pt         6.9296500000        7.2015000000        0.0000000000
 Pt         9.7015100000        7.2015000000        0.0000000000
 Pt        12.4733690000        7.2015000000        0.0000000000
 Pt         1.3859300000        0.8001350000        2.2633330000
 Pt         4.1577900000        0.8001350000        2.2633330000
 Pt         6.9296500000        0.8001350000        2.2633330000
 Pt         9.7015100000        0.8001350000        2.2633330000
 Pt        12.4733690000        0.8001350000        2.2633330000
 Pt         0.0000000000        3.2006350000        2.2633330000
 Pt         2.7718600000        3.2006350000        2.2633330000
 Pt         5.5437200000        3.2006350000        2.2633330000
 Pt         8.3155800000        3.2006350000        2.2633330000
 Pt        11.0874400000        3.2006350000        2.2633330000
 Pt         1.3859300000        5.6011350000        2.2633330000
 Pt         4.1577900000        5.6011350000        2.2633330000
 Pt         6.9296500000        5.6011350000        2.2633330000
 Pt         9.7015100000        5.6011350000        2.2633330000
 Pt        12.4733690000        5.6011350000        2.2633330000
 Pt         0.0000000000        8.0016350000        2.2633330000
 Pt         2.7718600000        8.0016350000        2.2633330000
 Pt         5.5437200000        8.0016350000        2.2633330000
 Pt         8.3155800000        8.0016350000        2.2633330000
 Pt        11.0874400000        8.0016350000        2.2633330000
 Pt         0.1240172858        1.5500483043        4.5056381465
 Pt         2.8512602812        1.5126399896        4.5877330045
 Pt         5.6154646149        1.4726807873        4.6381557940
 Pt         8.3190964605        1.4472028480        4.5856690346
 Pt        11.2378169120        1.4230220300        4.6442224715
 Pt         1.4608973240        3.9231857996        4.5988490537
 Pt         4.2931088402        3.8333581642        4.5820141612
 Pt         7.0179327119        3.9170924467        4.6684134301
 Pt         9.6871569702        3.8768872217        4.5428881442
 Pt        12.4957463183        3.8166014112        4.6112995337
 Pt         0.0774787870        6.2878557118        4.5844777278
 Pt         2.8638378053        6.2855707667        4.5437923551
 Pt         5.5734098138        6.2976367768        4.5833609828
 Pt         8.3863331397        6.3467272922        4.5707697701
 Pt        11.1870975506        6.3165120672        4.5826149283
 Pt         1.5231570921        8.7613895120        4.6208626127
 Pt         4.1787687366        8.7636215715        4.6487284376
 Pt         7.0027283208        8.6483079951        4.6382275199
 Pt         9.8959491485        8.6954058890        4.4956089292
 Pt        12.6921455604        8.6454747573        4.6599306348
 Pt         0.0722687236       -0.1501744704        7.1376184078
 Pt         2.8229949884       -0.1610901366        7.0584930374
 Pt         5.6495184291       -0.2074391960        7.0116032566
 Pt         8.4556771548       -0.2437515500        7.0170566798
 Pt        11.2730282158       -0.2032695228        6.9397602949
 Pt         1.4331948846        2.2654525170        6.9328358716
 Pt         4.2674742175        2.3234178427        7.1446377811
 Pt         7.0475178325        2.2266416560        6.8723497194
 Pt         9.9150441947        2.1208055711        6.9790972198
 Pt        12.5155747492        2.1781682623        7.1386959630
 Pt         0.0959984011        4.5870848220        7.1780770904
 Pt         2.8245803264        4.6814933714        6.8583901232
 Pt         5.7271905755        4.7148710873        6.9884841737
 Pt         8.4420860060        4.6058529042        6.9891362538
 Pt        11.1775828075        4.4562855238        6.8704422773
 Pt         1.4598714931        6.9898779215        6.9633147291
 Pt         4.2190864472        7.0622162464        6.9819525081
 Pt         6.9914889680        6.9937747419        6.8900809330
 Pt         9.8503096806        6.9561309316        6.8619323839
 Pt        12.6069569313        6.9573926658        7.0735365106
     353
 i =    15015, time =    15015.000, E =     -3667.6407829110
  O         5.6355127096        9.7458887345       13.3248053335
  O        -0.6798641267        7.3741762011       12.9704360835
  O        10.6252107850       12.5940328125       13.1966962636
  O         5.6991648755        5.6418080754       17.4121041942
  O        11.6090802521        0.4420155760       22.4735894875
  O         7.9530216021        7.4504922118       17.9145005695
  O        -0.8441521275        3.8300842625       21.5110786989
  O         8.9385274760        7.9366812857       24.6839940009
  O        -0.8462106193        2.5315883146       12.4265152186
  O         2.8897020884       -2.7734649440       27.6585601316
  O        11.4741221395        5.4383384530       19.8667018945
  O         3.1069858789        2.6051394061       22.6474467295
  O         6.6570726602        2.5342773298       19.0886134202
  O         5.7378684687        4.9285109825        9.2541424125
  O         0.0794251848       -4.2047740123       27.1533979249
  O         9.0821411225        6.4141128779       20.1980319024
  O         7.9434792680       -1.6552699595       21.9682640745
  O         4.1661751361        3.8776047289       26.4308103530
  O        -0.9087731029        7.0106120469       18.1917984648
  O         5.9795224688        5.3554485475       25.4495324391
  O         0.3263869127        9.6988869812       18.9638640501
  O        12.1798680064        3.8892957629       25.7762726475
  O        10.9165888084        6.1811438675       12.8565567522
  O         3.8054493152       -2.5597651730       25.0110190255
  O         4.4650740200        1.1820908160       18.7542563498
  O         2.8378469337       -0.1359966782       28.9314840460
  O        12.9077700727        2.2304013213       23.6805512487
  O        13.4403478567        9.5649556215       28.0171332507
  O         1.0808059053        2.1248492993       20.6962107632
  O         8.2509230455        0.3260605962       19.0479235800
  O         8.9664791583        8.0537792184       12.8633707964
  O         8.2484307823        4.1093749097       13.0761757911
  O        -1.2822739866        7.0882614696        9.3088795942
  O         3.3527673456        9.5317798820        9.4298853279
  O         5.5125765162        5.1492532577       14.2163222004
  O        -2.6220320886        6.0834908637       23.7177827274
  O         6.7748373312       -1.2360626796       11.3776209871
  O        10.5751828473        3.5884819885       17.9094897365
  O         4.7667788784        3.1834635830       16.1413793799
  O         8.0395141521        1.1850682220       16.1744325175
  O         3.8258665851        3.1910607896       10.1484825949
  O        -2.9807490353       10.5414914459       18.3841785458
  O         7.4340622987       10.0905058752       23.8508331609
  O        10.6817892084       10.7688388122       26.9653508405
  O         7.9395106803        6.1820468999       14.7563374252
  O        -0.3473204792       10.0087318784       14.3052099917
  O         2.4525894197        7.0632196589       11.8604200499
  O         2.9717780984        1.1237410383       13.1054553304
  O         1.9924652656        5.0775045752       23.7961912207
  O         2.0228630900        0.9880297708       15.5904077044
  O         9.9047003105        7.2158150138        9.4829942414
  O         3.9626160972        7.0364249474       15.7378292465
  O         2.0942412416        2.4267675066       25.2273633154
  O         8.0539838872        6.5698446534       26.6502885108
  O         7.9288007086        3.7611737517       17.0746687485
  O         0.0926381259        6.1432242316       22.4698507422
  O         3.3604154610        3.9033460699       12.8424697608
  O         4.3352253924       -0.3154203151       23.0559278725
  O        12.7401756374        9.5987238927       10.6733743045
  O         9.4606159483        4.2587193891       22.0584352676
  O        10.8744492093        4.5913985722       15.3459367755
  O         1.1036592734        0.2180168116       23.9373553720
  O        -2.5770429763        9.5711606136       15.8983590519
  O         5.4228746661        3.6198424571       21.1747047308
  O         1.3703053094        9.5624445869       11.4231334514
  O        14.8144387306        2.9057323491       10.2357867875
  O         8.2550613905        5.4027363884       10.6048525834
  O        14.4486445591        4.9589863858       13.1323019069
  O         5.5066501847       -0.0103504527       16.3232921106
  O         8.9668330344        1.3016565549       21.6204586520
  O        10.9643307819        4.1677372759       10.2814968500
  O         7.9315963057        1.9462107829       25.8882905373
  O         2.7426464118       -0.5177543223       17.6100763578
  O         0.7580644417        5.7102053543        9.9485535529
  O        10.1026886083        7.2234313007       16.2949518064
  O         1.8961530214        7.5806362086       14.5014301664
  O         0.1820380710        5.8216234376       15.8053950778
  O        11.3485103497        9.0752120470       25.1520888396
  O         6.5512954110        2.5219219636       11.7862824132
  O         2.9118906729        3.4837225173       18.8902598766
  O         0.2248102867        8.7401347238       21.5334857979
  O         8.0227167903       10.4187921622        9.9523718905
  O         4.5826851492        7.1915469025       10.3620951998
  O         9.6811351710       10.3660556616       13.9022850396
  O        10.5674538288       11.0401597834       10.2180272847
  O        14.9694019730        2.0180424957       27.5527035441
  O         2.1265867178        3.8319828242       16.4407146030
  O         4.7049934475       -1.3847654414       20.5531274766
  O         0.4863685162       -1.3328398095       25.8932781786
  O         4.3774697594        5.6294681658       19.6606439953
  O         6.8246088333        5.0516877089       22.9563791432
  H         4.7327025069        9.8535967342       13.0193519113
  H        -0.7056575726        7.8829427069       12.1418191376
  H        11.5211919531       12.6765395280       12.8625647626
  H         6.4395545091        6.2275770726       17.4196010658
  H        12.1625880827        9.3961694031       22.0185833838
  H         8.3608156373        6.9256813628       18.6555697380
  H        -0.3565469796        4.6375474254       21.8329640240
  H         8.4698887901        8.7401172883       24.3998360055
  H        -0.7109684510       11.3068038799       12.8516609519
  H         2.7018450418       -1.9850321405       28.1991858702
  H        11.9923764803        6.0624406094       19.3602433554
  H         2.3003385461        2.4256103551       22.0465115826
  H         7.0239414010        3.3230290224       18.5721513766
  H         5.1518216306        4.1701624154        9.5610964848
  H        -0.3981031454       -4.0944902348       27.9803010400